HEADER
"PSFversion" "1.00"
"N5n N4n N3n N2n N1n N0n" "NCSU_Analog_Parts_nmos4_spectre"
"R1n R0n" "analogLib_res_spectre"
"C1n C0n" "analogLib_cap_spectre"
"V1n V0n" "analogLib_vdc_spectre"
"I14n" "analogLib_idc_spectre"
"IF+v" ":1v"
"IF-v" ":2v"
"LO+v" ":3v"
"LO-v" ":4v"
"RF+v" ":5v"
"RF-v" ":6v"
