HEADER
"PSFversion" "1.00"
"singlev" "\:singlev"
"bal_pv" "\:bal_pv"
"bal_nv" "\:bal_nv"
