HEADER
"PSFversion" "1.00"
"__NEXT_FILE__" "Receiver_System_IndividualMetrics"
