HEADER
"PSFversion" "1.00"
"N5n N4n N3n N2n N1n N0n" "NCSU_Analog_Parts_nmos4_spectre"
"I0n" "analogLib_idc_spectre"
"C1n C0n" "analogLib_cap_spectre"
"R1n R0n" "analogLib_res_spectre"
"L1n L0n" "analogLib_ind_spectre"
"V1n V0n" "analogLib_vdc_spectre"
