HEADER
"PSFversion" "1.00"
"PORT0v" "1v"
"PORT1v" "2v"
