HEADER
"PSFversion" "1.00"
"N4n N3n N2n N1n N0n" "NCSU_Analog_Parts_nmos4_spectre"
"R1n R0n" "analogLib_res_spectre"
"C1n C0n" "analogLib_cap_spectre"
"V4n V3n V2n V1n V0n" "analogLib_vdc_spectre"
