HEADER
"PSFversion" "1.00"
"__artInstanceTerminalDelimiter__" ":"
"__artHierarchyDelimiter__" "."
"__sst2usecolon__" "t"
