HEADER
"PSFversion" "1.00"
"PORT1v" "1v"
"PORT0v" "2v"
"PORT2v" "3v"
